
Host: ds12

Timers On : Sun Feb 16 19:14:41 2020
Timers Off: Sun Feb 16 19:14:43 2020

Wall Time:        2.44 seconds

                                                       Time (seconds)
Module                                       User      System        Wall        Calls

--------------------------------------------------------------------------------------

**************************************************************************************

Host: ds12

Timers On : Sun Feb 16 19:15:15 2020
Timers Off: Sun Feb 16 19:15:16 2020

Wall Time:        1.20 seconds

                                                       Time (seconds)
Module                                       User      System        Wall        Calls

--------------------------------------------------------------------------------------

**************************************************************************************

Host: ds12

Timers On : Sun Feb 16 23:58:23 2020
Timers Off: Sun Feb 16 23:58:24 2020

Wall Time:        1.22 seconds

                                                       Time (seconds)
Module                                       User      System        Wall        Calls

--------------------------------------------------------------------------------------

**************************************************************************************

Host: ds12

Timers On : Mon Feb 17 00:39:09 2020
Timers Off: Mon Feb 17 00:39:18 2020

Wall Time:        8.43 seconds

                                                       Time (seconds)
Module                                       User      System        Wall        Calls
DFH: sparsity prep                  :      0.333u      0.033s      0.360w      2 calls
DFH: initialize()                   :      2.433u      0.100s      1.533w      2 calls
DFH: AO Construction                :      1.167u      0.033s      0.721w      2 calls
DFH: AO-Met. Contraction            :      0.450u      0.050s      0.304w      2 calls
HF: Form core H                     :      0.000u      0.000s      0.086w      2 calls
HF: Form S/X                        :      0.033u      0.000s      0.010w      2 calls
HF: Guess                           :      2.150u      0.000s      1.305w      2 calls
SAD Guess                           :      2.100u      0.000s      1.269w      2 calls
HF: Form G                          :      0.633u      0.000s      0.369w     22 calls
JK: D                               :      0.000u      0.000s      0.001w     22 calls
JK: USO2AO                          :      0.000u      0.000s      0.000w     22 calls
JK: JK                              :      0.600u      0.000s      0.364w     22 calls
DFH: compute_JK()                   :      0.600u      0.000s      0.364w     22 calls
DFH: Grabbing AOs                   :      0.000u      0.000s      0.000w     22 calls
DFH: compute_J                      :      0.200u      0.000s      0.117w     22 calls
DFH: compute_K                      :      0.400u      0.000s      0.246w     22 calls
JK: AO2USO                          :      0.000u      0.000s      0.000w     22 calls
HF: Form F                          :      0.000u      0.000s      0.001w     22 calls
HF: Form D                          :      0.000u      0.000s      0.001w     22 calls
HF: DIIS                            :      0.050u      0.017s      0.058w     20 calls
DIISManager::add_entry              :      0.017u      0.000s      0.012w     20 calls
DIISManager::extrapolate            :      0.033u      0.000s      0.012w     20 calls
bMatrix setup                       :      0.017u      0.000s      0.005w     20 calls
bMatrix pseudoinverse               :      0.000u      0.000s      0.002w     20 calls
New vector                          :      0.017u      0.000s      0.004w     20 calls
HF: Form C                          :      0.117u      0.017s      0.066w     20 calls

--------------------------------------------------------------------------------------
DFH: sparsity prep                  :      0.333u      0.033s      0.360w      2 calls
DFH: initialize()                   :      2.433u      0.100s      1.533w      2 calls
| DFH: AO Construction              :      1.167u      0.033s      0.721w      2 calls
| DFH: AO-Met. Contraction          :      0.450u      0.050s      0.304w      2 calls
HF: Form core H                     :      0.000u      0.000s      0.086w      2 calls
HF: Form S/X                        :      0.033u      0.000s      0.010w      2 calls
HF: Guess                           :      2.150u      0.000s      1.305w      2 calls
| SAD Guess                         :      2.100u      0.000s      1.269w      2 calls
HF: Form G                          :      0.633u      0.000s      0.369w     22 calls
| JK: D                             :      0.000u      0.000s      0.001w     22 calls
| JK: USO2AO                        :      0.000u      0.000s      0.000w     22 calls
| JK: JK                            :      0.600u      0.000s      0.364w     22 calls
| | DFH: compute_JK()               :      0.600u      0.000s      0.364w     22 calls
| | | DFH: Grabbing AOs             :      0.000u      0.000s      0.000w     22 calls
| | | DFH: compute_J                :      0.200u      0.000s      0.117w     22 calls
| | | DFH: compute_K                :      0.400u      0.000s      0.246w     22 calls
| JK: AO2USO                        :      0.000u      0.000s      0.000w     22 calls
HF: Form F                          :      0.000u      0.000s      0.001w     22 calls
HF: Form D                          :      0.000u      0.000s      0.001w     22 calls
HF: DIIS                            :      0.050u      0.017s      0.058w     20 calls
| DIISManager::add_entry            :      0.017u      0.000s      0.012w     20 calls
| DIISManager::extrapolate          :      0.033u      0.000s      0.012w     20 calls
| | bMatrix setup                   :      0.017u      0.000s      0.005w     20 calls
| | bMatrix pseudoinverse           :      0.000u      0.000s      0.002w     20 calls
| | New vector                      :      0.017u      0.000s      0.004w     20 calls
HF: Form C                          :      0.117u      0.017s      0.066w     20 calls

**************************************************************************************

Host: ds12

Timers On : Mon Feb 17 00:40:55 2020
Timers Off: Mon Feb 17 00:41:03 2020

Wall Time:        8.26 seconds

                                                       Time (seconds)
Module                                       User      System        Wall        Calls
DFH: sparsity prep                  :      0.317u      0.017s      0.198w      2 calls
DFH: initialize()                   :      2.600u      0.100s      1.633w      2 calls
DFH: AO Construction                :      1.217u      0.033s      0.749w      2 calls
DFH: AO-Met. Contraction            :      0.517u      0.050s      0.344w      2 calls
HF: Form core H                     :      0.000u      0.000s      0.091w      2 calls
HF: Form S/X                        :      0.017u      0.000s      0.009w      2 calls
HF: Guess                           :      2.133u      0.000s      1.279w      2 calls
SAD Guess                           :      2.083u      0.000s      1.247w      2 calls
HF: Form G                          :      0.633u      0.000s      0.399w     22 calls
JK: D                               :      0.000u      0.000s      0.001w     22 calls
JK: USO2AO                          :      0.000u      0.000s      0.001w     22 calls
JK: JK                              :      0.633u      0.000s      0.393w     22 calls
DFH: compute_JK()                   :      0.633u      0.000s      0.393w     22 calls
DFH: Grabbing AOs                   :      0.000u      0.000s      0.000w     22 calls
DFH: compute_J                      :      0.183u      0.000s      0.125w     22 calls
DFH: compute_K                      :      0.450u      0.000s      0.267w     22 calls
JK: AO2USO                          :      0.000u      0.000s      0.000w     22 calls
HF: Form F                          :      0.000u      0.000s      0.001w     22 calls
HF: Form D                          :      0.000u      0.000s      0.001w     22 calls
HF: DIIS                            :      0.067u      0.017s      0.061w     20 calls
DIISManager::add_entry              :      0.017u      0.000s      0.013w     20 calls
DIISManager::extrapolate            :      0.000u      0.000s      0.013w     20 calls
bMatrix setup                       :      0.000u      0.000s      0.006w     20 calls
bMatrix pseudoinverse               :      0.000u      0.000s      0.002w     20 calls
New vector                          :      0.000u      0.000s      0.005w     20 calls
HF: Form C                          :      0.150u      0.000s      0.073w     20 calls

--------------------------------------------------------------------------------------
DFH: sparsity prep                  :      0.317u      0.017s      0.198w      2 calls
DFH: initialize()                   :      2.600u      0.100s      1.633w      2 calls
| DFH: AO Construction              :      1.217u      0.033s      0.749w      2 calls
| DFH: AO-Met. Contraction          :      0.517u      0.050s      0.344w      2 calls
HF: Form core H                     :      0.000u      0.000s      0.091w      2 calls
HF: Form S/X                        :      0.017u      0.000s      0.009w      2 calls
HF: Guess                           :      2.133u      0.000s      1.279w      2 calls
| SAD Guess                         :      2.083u      0.000s      1.247w      2 calls
HF: Form G                          :      0.633u      0.000s      0.399w     22 calls
| JK: D                             :      0.000u      0.000s      0.001w     22 calls
| JK: USO2AO                        :      0.000u      0.000s      0.001w     22 calls
| JK: JK                            :      0.633u      0.000s      0.393w     22 calls
| | DFH: compute_JK()               :      0.633u      0.000s      0.393w     22 calls
| | | DFH: Grabbing AOs             :      0.000u      0.000s      0.000w     22 calls
| | | DFH: compute_J                :      0.183u      0.000s      0.125w     22 calls
| | | DFH: compute_K                :      0.450u      0.000s      0.267w     22 calls
| JK: AO2USO                        :      0.000u      0.000s      0.000w     22 calls
HF: Form F                          :      0.000u      0.000s      0.001w     22 calls
HF: Form D                          :      0.000u      0.000s      0.001w     22 calls
HF: DIIS                            :      0.067u      0.017s      0.061w     20 calls
| DIISManager::add_entry            :      0.017u      0.000s      0.013w     20 calls
| DIISManager::extrapolate          :      0.000u      0.000s      0.013w     20 calls
| | bMatrix setup                   :      0.000u      0.000s      0.006w     20 calls
| | bMatrix pseudoinverse           :      0.000u      0.000s      0.002w     20 calls
| | New vector                      :      0.000u      0.000s      0.005w     20 calls
HF: Form C                          :      0.150u      0.000s      0.073w     20 calls

**************************************************************************************

Host: ds12

Timers On : Mon Feb 17 01:03:56 2020
Timers Off: Mon Feb 17 01:04:04 2020

Wall Time:        8.24 seconds

                                                       Time (seconds)
Module                                       User      System        Wall        Calls
DFH: sparsity prep                  :      0.350u      0.000s      0.208w      2 calls
DFH: initialize()                   :      2.450u      0.100s      1.539w      2 calls
DFH: AO Construction                :      1.100u      0.033s      0.691w      2 calls
DFH: AO-Met. Contraction            :      0.517u      0.050s      0.348w      2 calls
HF: Form core H                     :      0.000u      0.000s      0.080w      2 calls
HF: Form S/X                        :      0.033u      0.000s      0.010w      2 calls
HF: Guess                           :      1.983u      0.000s      1.199w      2 calls
SAD Guess                           :      1.950u      0.000s      1.173w      2 calls
HF: Form G                          :      0.650u      0.000s      0.407w     22 calls
JK: D                               :      0.000u      0.000s      0.001w     22 calls
JK: USO2AO                          :      0.000u      0.000s      0.000w     22 calls
JK: JK                              :      0.650u      0.000s      0.401w     22 calls
DFH: compute_JK()                   :      0.650u      0.000s      0.401w     22 calls
DFH: Grabbing AOs                   :      0.000u      0.000s      0.000w     22 calls
DFH: compute_J                      :      0.183u      0.000s      0.123w     22 calls
DFH: compute_K                      :      0.467u      0.000s      0.277w     22 calls
JK: AO2USO                          :      0.000u      0.000s      0.000w     22 calls
HF: Form F                          :      0.000u      0.000s      0.001w     22 calls
HF: Form D                          :      0.000u      0.000s      0.001w     22 calls
HF: DIIS                            :      0.117u      0.033s      0.066w     20 calls
DIISManager::add_entry              :      0.050u      0.017s      0.013w     20 calls
DIISManager::extrapolate            :      0.000u      0.017s      0.014w     20 calls
bMatrix setup                       :      0.000u      0.000s      0.007w     20 calls
bMatrix pseudoinverse               :      0.000u      0.017s      0.002w     20 calls
New vector                          :      0.000u      0.000s      0.005w     20 calls
HF: Form C                          :      0.050u      0.000s      0.083w     20 calls

--------------------------------------------------------------------------------------
DFH: sparsity prep                  :      0.350u      0.000s      0.208w      2 calls
DFH: initialize()                   :      2.450u      0.100s      1.539w      2 calls
| DFH: AO Construction              :      1.100u      0.033s      0.691w      2 calls
| DFH: AO-Met. Contraction          :      0.517u      0.050s      0.348w      2 calls
HF: Form core H                     :      0.000u      0.000s      0.080w      2 calls
HF: Form S/X                        :      0.033u      0.000s      0.010w      2 calls
HF: Guess                           :      1.983u      0.000s      1.199w      2 calls
| SAD Guess                         :      1.950u      0.000s      1.173w      2 calls
HF: Form G                          :      0.650u      0.000s      0.407w     22 calls
| JK: D                             :      0.000u      0.000s      0.001w     22 calls
| JK: USO2AO                        :      0.000u      0.000s      0.000w     22 calls
| JK: JK                            :      0.650u      0.000s      0.401w     22 calls
| | DFH: compute_JK()               :      0.650u      0.000s      0.401w     22 calls
| | | DFH: Grabbing AOs             :      0.000u      0.000s      0.000w     22 calls
| | | DFH: compute_J                :      0.183u      0.000s      0.123w     22 calls
| | | DFH: compute_K                :      0.467u      0.000s      0.277w     22 calls
| JK: AO2USO                        :      0.000u      0.000s      0.000w     22 calls
HF: Form F                          :      0.000u      0.000s      0.001w     22 calls
HF: Form D                          :      0.000u      0.000s      0.001w     22 calls
HF: DIIS                            :      0.117u      0.033s      0.066w     20 calls
| DIISManager::add_entry            :      0.050u      0.017s      0.013w     20 calls
| DIISManager::extrapolate          :      0.000u      0.017s      0.014w     20 calls
| | bMatrix setup                   :      0.000u      0.000s      0.007w     20 calls
| | bMatrix pseudoinverse           :      0.000u      0.017s      0.002w     20 calls
| | New vector                      :      0.000u      0.000s      0.005w     20 calls
HF: Form C                          :      0.050u      0.000s      0.083w     20 calls

**************************************************************************************

Host: ds12

Timers On : Mon Feb 17 01:04:45 2020
Timers Off: Mon Feb 17 01:04:53 2020

Wall Time:        8.00 seconds

                                                       Time (seconds)
Module                                       User      System        Wall        Calls
DFH: sparsity prep                  :      0.350u      0.017s      0.212w      2 calls
DFH: initialize()                   :      2.383u      0.083s      1.501w      2 calls
DFH: AO Construction                :      1.050u      0.017s      0.655w      2 calls
DFH: AO-Met. Contraction            :      0.533u      0.050s      0.344w      2 calls
HF: Form core H                     :      0.000u      0.017s      0.028w      2 calls
HF: Form S/X                        :      0.000u      0.000s      0.005w      2 calls
HF: Guess                           :      2.117u      0.000s      1.267w      2 calls
SAD Guess                           :      2.017u      0.000s      1.225w      2 calls
HF: Form G                          :      0.617u      0.000s      0.375w     22 calls
JK: D                               :      0.000u      0.000s      0.001w     22 calls
JK: USO2AO                          :      0.000u      0.000s      0.000w     22 calls
JK: JK                              :      0.600u      0.000s      0.370w     22 calls
DFH: compute_JK()                   :      0.600u      0.000s      0.369w     22 calls
DFH: Grabbing AOs                   :      0.000u      0.000s      0.000w     22 calls
DFH: compute_J                      :      0.167u      0.000s      0.114w     22 calls
DFH: compute_K                      :      0.433u      0.000s      0.255w     22 calls
JK: AO2USO                          :      0.000u      0.000s      0.000w     22 calls
HF: Form F                          :      0.000u      0.000s      0.001w     22 calls
HF: Form D                          :      0.000u      0.000s      0.001w     22 calls
HF: DIIS                            :      0.017u      0.017s      0.058w     20 calls
DIISManager::add_entry              :      0.000u      0.000s      0.012w     20 calls
DIISManager::extrapolate            :      0.000u      0.000s      0.012w     20 calls
bMatrix setup                       :      0.000u      0.000s      0.006w     20 calls
bMatrix pseudoinverse               :      0.000u      0.000s      0.002w     20 calls
New vector                          :      0.000u      0.000s      0.004w     20 calls
HF: Form C                          :      0.117u      0.000s      0.070w     20 calls

--------------------------------------------------------------------------------------
DFH: sparsity prep                  :      0.350u      0.017s      0.212w      2 calls
DFH: initialize()                   :      2.383u      0.083s      1.501w      2 calls
| DFH: AO Construction              :      1.050u      0.017s      0.655w      2 calls
| DFH: AO-Met. Contraction          :      0.533u      0.050s      0.344w      2 calls
HF: Form core H                     :      0.000u      0.017s      0.028w      2 calls
HF: Form S/X                        :      0.000u      0.000s      0.005w      2 calls
HF: Guess                           :      2.117u      0.000s      1.267w      2 calls
| SAD Guess                         :      2.017u      0.000s      1.225w      2 calls
HF: Form G                          :      0.617u      0.000s      0.375w     22 calls
| JK: D                             :      0.000u      0.000s      0.001w     22 calls
| JK: USO2AO                        :      0.000u      0.000s      0.000w     22 calls
| JK: JK                            :      0.600u      0.000s      0.370w     22 calls
| | DFH: compute_JK()               :      0.600u      0.000s      0.369w     22 calls
| | | DFH: Grabbing AOs             :      0.000u      0.000s      0.000w     22 calls
| | | DFH: compute_J                :      0.167u      0.000s      0.114w     22 calls
| | | DFH: compute_K                :      0.433u      0.000s      0.255w     22 calls
| JK: AO2USO                        :      0.000u      0.000s      0.000w     22 calls
HF: Form F                          :      0.000u      0.000s      0.001w     22 calls
HF: Form D                          :      0.000u      0.000s      0.001w     22 calls
HF: DIIS                            :      0.017u      0.017s      0.058w     20 calls
| DIISManager::add_entry            :      0.000u      0.000s      0.012w     20 calls
| DIISManager::extrapolate          :      0.000u      0.000s      0.012w     20 calls
| | bMatrix setup                   :      0.000u      0.000s      0.006w     20 calls
| | bMatrix pseudoinverse           :      0.000u      0.000s      0.002w     20 calls
| | New vector                      :      0.000u      0.000s      0.004w     20 calls
HF: Form C                          :      0.117u      0.000s      0.070w     20 calls

**************************************************************************************

Host: ds12

Timers On : Mon Feb 17 01:07:20 2020
Timers Off: Mon Feb 17 01:07:28 2020

Wall Time:        8.29 seconds

                                                       Time (seconds)
Module                                       User      System        Wall        Calls
DFH: sparsity prep                  :      0.317u      0.017s      0.195w      2 calls
DFH: initialize()                   :      2.567u      0.083s      1.598w      2 calls
DFH: AO Construction                :      1.200u      0.033s      0.734w      2 calls
DFH: AO-Met. Contraction            :      0.533u      0.050s      0.348w      2 calls
HF: Form core H                     :      0.000u      0.000s      0.099w      2 calls
HF: Form S/X                        :      0.000u      0.000s      0.009w      2 calls
HF: Guess                           :      2.100u      0.000s      1.257w      2 calls
SAD Guess                           :      2.017u      0.000s      1.218w      2 calls
HF: Form G                          :      0.683u      0.000s      0.421w     22 calls
JK: D                               :      0.000u      0.000s      0.001w     22 calls
JK: USO2AO                          :      0.000u      0.000s      0.001w     22 calls
JK: JK                              :      0.667u      0.000s      0.414w     22 calls
DFH: compute_JK()                   :      0.667u      0.000s      0.414w     22 calls
DFH: Grabbing AOs                   :      0.000u      0.000s      0.000w     22 calls
DFH: compute_J                      :      0.267u      0.000s      0.128w     22 calls
DFH: compute_K                      :      0.400u      0.000s      0.286w     22 calls
JK: AO2USO                          :      0.000u      0.000s      0.000w     22 calls
HF: Form F                          :      0.000u      0.000s      0.002w     22 calls
HF: Form D                          :      0.000u      0.000s      0.001w     22 calls
HF: DIIS                            :      0.133u      0.017s      0.069w     20 calls
DIISManager::add_entry              :      0.000u      0.000s      0.014w     20 calls
DIISManager::extrapolate            :      0.033u      0.017s      0.014w     20 calls
bMatrix setup                       :      0.017u      0.000s      0.007w     20 calls
bMatrix pseudoinverse               :      0.017u      0.000s      0.002w     20 calls
New vector                          :      0.000u      0.017s      0.005w     20 calls
HF: Form C                          :      0.067u      0.017s      0.083w     20 calls

--------------------------------------------------------------------------------------
DFH: sparsity prep                  :      0.317u      0.017s      0.195w      2 calls
DFH: initialize()                   :      2.567u      0.083s      1.598w      2 calls
| DFH: AO Construction              :      1.200u      0.033s      0.734w      2 calls
| DFH: AO-Met. Contraction          :      0.533u      0.050s      0.348w      2 calls
HF: Form core H                     :      0.000u      0.000s      0.099w      2 calls
HF: Form S/X                        :      0.000u      0.000s      0.009w      2 calls
HF: Guess                           :      2.100u      0.000s      1.257w      2 calls
| SAD Guess                         :      2.017u      0.000s      1.218w      2 calls
HF: Form G                          :      0.683u      0.000s      0.421w     22 calls
| JK: D                             :      0.000u      0.000s      0.001w     22 calls
| JK: USO2AO                        :      0.000u      0.000s      0.001w     22 calls
| JK: JK                            :      0.667u      0.000s      0.414w     22 calls
| | DFH: compute_JK()               :      0.667u      0.000s      0.414w     22 calls
| | | DFH: Grabbing AOs             :      0.000u      0.000s      0.000w     22 calls
| | | DFH: compute_J                :      0.267u      0.000s      0.128w     22 calls
| | | DFH: compute_K                :      0.400u      0.000s      0.286w     22 calls
| JK: AO2USO                        :      0.000u      0.000s      0.000w     22 calls
HF: Form F                          :      0.000u      0.000s      0.002w     22 calls
HF: Form D                          :      0.000u      0.000s      0.001w     22 calls
HF: DIIS                            :      0.133u      0.017s      0.069w     20 calls
| DIISManager::add_entry            :      0.000u      0.000s      0.014w     20 calls
| DIISManager::extrapolate          :      0.033u      0.017s      0.014w     20 calls
| | bMatrix setup                   :      0.017u      0.000s      0.007w     20 calls
| | bMatrix pseudoinverse           :      0.017u      0.000s      0.002w     20 calls
| | New vector                      :      0.000u      0.017s      0.005w     20 calls
HF: Form C                          :      0.067u      0.017s      0.083w     20 calls

**************************************************************************************

Host: ds12

Timers On : Mon Feb 17 01:12:27 2020
Timers Off: Mon Feb 17 01:12:35 2020

Wall Time:        8.44 seconds

                                                       Time (seconds)
Module                                       User      System        Wall        Calls
DFH: sparsity prep                  :      0.350u      0.017s      0.212w      2 calls
DFH: initialize()                   :      2.500u      0.100s      1.574w      2 calls
DFH: AO Construction                :      1.150u      0.033s      0.712w      2 calls
DFH: AO-Met. Contraction            :      0.500u      0.050s      0.337w      2 calls
HF: Form core H                     :      0.000u      0.017s      0.088w      2 calls
HF: Form S/X                        :      0.033u      0.000s      0.010w      2 calls
HF: Guess                           :      2.017u      0.000s      1.221w      2 calls
SAD Guess                           :      1.967u      0.000s      1.192w      2 calls
HF: Form G                          :      0.617u      0.000s      0.400w     22 calls
JK: D                               :      0.000u      0.000s      0.001w     22 calls
JK: USO2AO                          :      0.000u      0.000s      0.000w     22 calls
JK: JK                              :      0.600u      0.000s      0.394w     22 calls
DFH: compute_JK()                   :      0.600u      0.000s      0.394w     22 calls
DFH: Grabbing AOs                   :      0.000u      0.000s      0.000w     22 calls
DFH: compute_J                      :      0.217u      0.000s      0.122w     22 calls
DFH: compute_K                      :      0.383u      0.000s      0.271w     22 calls
JK: AO2USO                          :      0.000u      0.000s      0.000w     22 calls
HF: Form F                          :      0.000u      0.000s      0.001w     22 calls
HF: Form D                          :      0.000u      0.000s      0.001w     22 calls
HF: DIIS                            :      0.133u      0.017s      0.122w     20 calls
DIISManager::add_entry              :      0.017u      0.000s      0.069w     20 calls
DIISManager::extrapolate            :      0.000u      0.017s      0.014w     20 calls
bMatrix setup                       :      0.000u      0.017s      0.007w     20 calls
bMatrix pseudoinverse               :      0.000u      0.000s      0.002w     20 calls
New vector                          :      0.000u      0.000s      0.005w     20 calls
HF: Form C                          :      0.067u      0.000s      0.082w     20 calls

--------------------------------------------------------------------------------------
DFH: sparsity prep                  :      0.350u      0.017s      0.212w      2 calls
DFH: initialize()                   :      2.500u      0.100s      1.574w      2 calls
| DFH: AO Construction              :      1.150u      0.033s      0.712w      2 calls
| DFH: AO-Met. Contraction          :      0.500u      0.050s      0.337w      2 calls
HF: Form core H                     :      0.000u      0.017s      0.088w      2 calls
HF: Form S/X                        :      0.033u      0.000s      0.010w      2 calls
HF: Guess                           :      2.017u      0.000s      1.221w      2 calls
| SAD Guess                         :      1.967u      0.000s      1.192w      2 calls
HF: Form G                          :      0.617u      0.000s      0.400w     22 calls
| JK: D                             :      0.000u      0.000s      0.001w     22 calls
| JK: USO2AO                        :      0.000u      0.000s      0.000w     22 calls
| JK: JK                            :      0.600u      0.000s      0.394w     22 calls
| | DFH: compute_JK()               :      0.600u      0.000s      0.394w     22 calls
| | | DFH: Grabbing AOs             :      0.000u      0.000s      0.000w     22 calls
| | | DFH: compute_J                :      0.217u      0.000s      0.122w     22 calls
| | | DFH: compute_K                :      0.383u      0.000s      0.271w     22 calls
| JK: AO2USO                        :      0.000u      0.000s      0.000w     22 calls
HF: Form F                          :      0.000u      0.000s      0.001w     22 calls
HF: Form D                          :      0.000u      0.000s      0.001w     22 calls
HF: DIIS                            :      0.133u      0.017s      0.122w     20 calls
| DIISManager::add_entry            :      0.017u      0.000s      0.069w     20 calls
| DIISManager::extrapolate          :      0.000u      0.017s      0.014w     20 calls
| | bMatrix setup                   :      0.000u      0.017s      0.007w     20 calls
| | bMatrix pseudoinverse           :      0.000u      0.000s      0.002w     20 calls
| | New vector                      :      0.000u      0.000s      0.005w     20 calls
HF: Form C                          :      0.067u      0.000s      0.082w     20 calls

**************************************************************************************

Host: ds12

Timers On : Mon Feb 17 01:13:36 2020
Timers Off: Mon Feb 17 01:13:44 2020

Wall Time:        7.93 seconds

                                                       Time (seconds)
Module                                       User      System        Wall        Calls
DFH: sparsity prep                  :      0.283u      0.000s      0.175w      2 calls
DFH: initialize()                   :      2.450u      0.083s      1.531w      2 calls
DFH: AO Construction                :      1.183u      0.017s      0.737w      2 calls
DFH: AO-Met. Contraction            :      0.400u      0.050s      0.258w      2 calls
HF: Form core H                     :      0.000u      0.000s      0.138w      2 calls
HF: Form S/X                        :      0.000u      0.000s      0.010w      2 calls
HF: Guess                           :      2.017u      0.000s      1.207w      2 calls
SAD Guess                           :      1.950u      0.000s      1.176w      2 calls
HF: Form G                          :      0.667u      0.000s      0.393w     22 calls
JK: D                               :      0.000u      0.000s      0.001w     22 calls
JK: USO2AO                          :      0.000u      0.000s      0.000w     22 calls
JK: JK                              :      0.667u      0.000s      0.387w     22 calls
DFH: compute_JK()                   :      0.667u      0.000s      0.387w     22 calls
DFH: Grabbing AOs                   :      0.000u      0.000s      0.000w     22 calls
DFH: compute_J                      :      0.167u      0.000s      0.120w     22 calls
DFH: compute_K                      :      0.500u      0.000s      0.267w     22 calls
JK: AO2USO                          :      0.000u      0.000s      0.000w     22 calls
HF: Form F                          :      0.017u      0.000s      0.001w     22 calls
HF: Form D                          :      0.000u      0.000s      0.001w     22 calls
HF: DIIS                            :      0.033u      0.033s      0.063w     20 calls
DIISManager::add_entry              :      0.000u      0.000s      0.013w     20 calls
DIISManager::extrapolate            :      0.000u      0.033s      0.013w     20 calls
bMatrix setup                       :      0.000u      0.000s      0.006w     20 calls
bMatrix pseudoinverse               :      0.000u      0.000s      0.002w     20 calls
New vector                          :      0.000u      0.033s      0.004w     20 calls
HF: Form C                          :      0.133u      0.000s      0.075w     20 calls

--------------------------------------------------------------------------------------
DFH: sparsity prep                  :      0.283u      0.000s      0.175w      2 calls
DFH: initialize()                   :      2.450u      0.083s      1.531w      2 calls
| DFH: AO Construction              :      1.183u      0.017s      0.737w      2 calls
| DFH: AO-Met. Contraction          :      0.400u      0.050s      0.258w      2 calls
HF: Form core H                     :      0.000u      0.000s      0.138w      2 calls
HF: Form S/X                        :      0.000u      0.000s      0.010w      2 calls
HF: Guess                           :      2.017u      0.000s      1.207w      2 calls
| SAD Guess                         :      1.950u      0.000s      1.176w      2 calls
HF: Form G                          :      0.667u      0.000s      0.393w     22 calls
| JK: D                             :      0.000u      0.000s      0.001w     22 calls
| JK: USO2AO                        :      0.000u      0.000s      0.000w     22 calls
| JK: JK                            :      0.667u      0.000s      0.387w     22 calls
| | DFH: compute_JK()               :      0.667u      0.000s      0.387w     22 calls
| | | DFH: Grabbing AOs             :      0.000u      0.000s      0.000w     22 calls
| | | DFH: compute_J                :      0.167u      0.000s      0.120w     22 calls
| | | DFH: compute_K                :      0.500u      0.000s      0.267w     22 calls
| JK: AO2USO                        :      0.000u      0.000s      0.000w     22 calls
HF: Form F                          :      0.017u      0.000s      0.001w     22 calls
HF: Form D                          :      0.000u      0.000s      0.001w     22 calls
HF: DIIS                            :      0.033u      0.033s      0.063w     20 calls
| DIISManager::add_entry            :      0.000u      0.000s      0.013w     20 calls
| DIISManager::extrapolate          :      0.000u      0.033s      0.013w     20 calls
| | bMatrix setup                   :      0.000u      0.000s      0.006w     20 calls
| | bMatrix pseudoinverse           :      0.000u      0.000s      0.002w     20 calls
| | New vector                      :      0.000u      0.033s      0.004w     20 calls
HF: Form C                          :      0.133u      0.000s      0.075w     20 calls

**************************************************************************************

Host: ds12

Timers On : Mon Feb 17 10:44:47 2020
Timers Off: Mon Feb 17 10:44:57 2020

Wall Time:       10.37 seconds

                                                       Time (seconds)
Module                                       User      System        Wall        Calls
DFH: sparsity prep                  :      0.333u      0.000s      0.216w      2 calls
DFH: initialize()                   :      2.500u      0.100s      1.590w      2 calls
DFH: AO Construction                :      1.100u      0.017s      0.689w      2 calls
DFH: AO-Met. Contraction            :      0.533u      0.050s      0.359w      2 calls
HF: Form core H                     :      0.000u      0.017s      0.093w      2 calls
HF: Form S/X                        :      0.033u      0.000s      0.013w      2 calls
HF: Guess                           :      2.267u      0.017s      1.379w      2 calls
SAD Guess                           :      2.200u      0.017s      1.334w      2 calls
HF: Form G                          :      0.850u      0.000s      0.502w     22 calls
JK: D                               :      0.000u      0.000s      0.002w     22 calls
JK: USO2AO                          :      0.000u      0.000s      0.001w     22 calls
JK: JK                              :      0.850u      0.000s      0.495w     22 calls
DFH: compute_JK()                   :      0.850u      0.000s      0.495w     22 calls
DFH: Grabbing AOs                   :      0.000u      0.000s      0.000w     22 calls
DFH: compute_J                      :      0.317u      0.000s      0.153w     22 calls
DFH: compute_K                      :      0.533u      0.000s      0.340w     22 calls
JK: AO2USO                          :      0.000u      0.000s      0.000w     22 calls
HF: Form F                          :      0.000u      0.000s      0.002w     22 calls
HF: Form D                          :      0.000u      0.000s      0.001w     22 calls
HF: DIIS                            :      0.117u      0.017s      0.070w     20 calls
DIISManager::add_entry              :      0.000u      0.000s      0.013w     20 calls
DIISManager::extrapolate            :      0.000u      0.017s      0.014w     20 calls
bMatrix setup                       :      0.000u      0.000s      0.006w     20 calls
bMatrix pseudoinverse               :      0.000u      0.000s      0.002w     20 calls
New vector                          :      0.000u      0.017s      0.005w     20 calls
HF: Form C                          :      0.100u      0.000s      0.094w     20 calls

--------------------------------------------------------------------------------------
DFH: sparsity prep                  :      0.333u      0.000s      0.216w      2 calls
DFH: initialize()                   :      2.500u      0.100s      1.590w      2 calls
| DFH: AO Construction              :      1.100u      0.017s      0.689w      2 calls
| DFH: AO-Met. Contraction          :      0.533u      0.050s      0.359w      2 calls
HF: Form core H                     :      0.000u      0.017s      0.093w      2 calls
HF: Form S/X                        :      0.033u      0.000s      0.013w      2 calls
HF: Guess                           :      2.267u      0.017s      1.379w      2 calls
| SAD Guess                         :      2.200u      0.017s      1.334w      2 calls
HF: Form G                          :      0.850u      0.000s      0.502w     22 calls
| JK: D                             :      0.000u      0.000s      0.002w     22 calls
| JK: USO2AO                        :      0.000u      0.000s      0.001w     22 calls
| JK: JK                            :      0.850u      0.000s      0.495w     22 calls
| | DFH: compute_JK()               :      0.850u      0.000s      0.495w     22 calls
| | | DFH: Grabbing AOs             :      0.000u      0.000s      0.000w     22 calls
| | | DFH: compute_J                :      0.317u      0.000s      0.153w     22 calls
| | | DFH: compute_K                :      0.533u      0.000s      0.340w     22 calls
| JK: AO2USO                        :      0.000u      0.000s      0.000w     22 calls
HF: Form F                          :      0.000u      0.000s      0.002w     22 calls
HF: Form D                          :      0.000u      0.000s      0.001w     22 calls
HF: DIIS                            :      0.117u      0.017s      0.070w     20 calls
| DIISManager::add_entry            :      0.000u      0.000s      0.013w     20 calls
| DIISManager::extrapolate          :      0.000u      0.017s      0.014w     20 calls
| | bMatrix setup                   :      0.000u      0.000s      0.006w     20 calls
| | bMatrix pseudoinverse           :      0.000u      0.000s      0.002w     20 calls
| | New vector                      :      0.000u      0.017s      0.005w     20 calls
HF: Form C                          :      0.100u      0.000s      0.094w     20 calls

**************************************************************************************

Host: ds12

Timers On : Mon Feb 17 10:47:29 2020
Timers Off: Mon Feb 17 10:47:56 2020

Wall Time:       26.77 seconds

                                                       Time (seconds)
Module                                       User      System        Wall        Calls
DFH: sparsity prep                  :      0.367u      0.000s      0.214w      2 calls
DFH: initialize()                   :      2.433u      0.067s      1.520w      2 calls
DFH: AO Construction                :      1.117u      0.033s      0.684w      2 calls
DFH: AO-Met. Contraction            :      0.517u      0.033s      0.338w      2 calls
HF: Form core H                     :      0.000u      0.017s      0.039w      2 calls
HF: Form S/X                        :      0.033u      0.000s      0.014w      2 calls
HF: Guess                           :      2.217u      0.000s      1.349w      2 calls
SAD Guess                           :      2.167u      0.000s      1.312w      2 calls
HF: Form G                          :      0.667u      0.000s      0.419w     22 calls
JK: D                               :      0.050u      0.000s      0.002w     24 calls
JK: USO2AO                          :      0.000u      0.000s      0.002w     24 calls
JK: JK                              :      5.517u      0.000s      3.366w     24 calls
DFH: compute_JK()                   :      0.650u      0.000s      0.412w     22 calls
DFH: Grabbing AOs                   :      0.000u      0.000s      0.000w     22 calls
DFH: compute_J                      :      0.217u      0.000s      0.135w     22 calls
DFH: compute_K                      :      0.433u      0.000s      0.276w     22 calls
JK: AO2USO                          :      0.000u      0.000s      0.000w     24 calls
HF: Form F                          :      0.000u      0.000s      0.002w     22 calls
HF: Form D                          :      0.000u      0.000s      0.001w     22 calls
HF: DIIS                            :      0.100u      0.017s      0.067w     20 calls
DIISManager::add_entry              :      0.000u      0.017s      0.013w     20 calls
DIISManager::extrapolate            :      0.000u      0.000s      0.014w     20 calls
bMatrix setup                       :      0.000u      0.000s      0.007w     20 calls
bMatrix pseudoinverse               :      0.000u      0.000s      0.002w     20 calls
New vector                          :      0.000u      0.000s      0.005w     20 calls
HF: Form C                          :      0.117u      0.000s      0.083w     20 calls
JK: (A|mn)                          :     15.517u      0.333s      9.611w      2 calls
JK: (A|Q)^-1/2                      :      0.500u      0.000s      0.305w      2 calls
JK: (Q|mn)                          :      3.667u      0.333s      2.429w      2 calls
JK: J                               :      0.133u      0.000s      0.080w      2 calls
JK: J1                              :      0.067u      0.000s      0.037w      2 calls
JK: J2                              :      0.067u      0.000s      0.041w      2 calls
JK: K                               :      4.733u      0.000s      2.869w      2 calls
JK: K1                              :      4.633u      0.000s      2.814w      4 calls
JK: K2                              :      0.100u      0.000s      0.055w      2 calls

--------------------------------------------------------------------------------------
DFH: sparsity prep                  :      0.367u      0.000s      0.214w      2 calls
DFH: initialize()                   :      2.433u      0.067s      1.520w      2 calls
| DFH: AO Construction              :      1.117u      0.033s      0.684w      2 calls
| DFH: AO-Met. Contraction          :      0.517u      0.033s      0.338w      2 calls
HF: Form core H                     :      0.000u      0.017s      0.039w      2 calls
HF: Form S/X                        :      0.033u      0.000s      0.014w      2 calls
HF: Guess                           :      2.217u      0.000s      1.349w      2 calls
| SAD Guess                         :      2.167u      0.000s      1.312w      2 calls
HF: Form G                          :      0.667u      0.000s      0.419w     22 calls
| JK: D                             :      0.017u      0.000s      0.001w     22 calls
| JK: USO2AO                        :      0.000u      0.000s      0.001w     22 calls
| JK: JK                            :      0.650u      0.000s      0.412w     22 calls
| | DFH: compute_JK()               :      0.650u      0.000s      0.412w     22 calls
| | | DFH: Grabbing AOs             :      0.000u      0.000s      0.000w     22 calls
| | | DFH: compute_J                :      0.217u      0.000s      0.135w     22 calls
| | | DFH: compute_K                :      0.433u      0.000s      0.276w     22 calls
| JK: AO2USO                        :      0.000u      0.000s      0.000w     22 calls
HF: Form F                          :      0.000u      0.000s      0.002w     22 calls
HF: Form D                          :      0.000u      0.000s      0.001w     22 calls
HF: DIIS                            :      0.100u      0.017s      0.067w     20 calls
| DIISManager::add_entry            :      0.000u      0.017s      0.013w     20 calls
| DIISManager::extrapolate          :      0.000u      0.000s      0.014w     20 calls
| | bMatrix setup                   :      0.000u      0.000s      0.007w     20 calls
| | bMatrix pseudoinverse           :      0.000u      0.000s      0.002w     20 calls
| | New vector                      :      0.000u      0.000s      0.005w     20 calls
HF: Form C                          :      0.117u      0.000s      0.083w     20 calls
JK: (A|mn)                          :     15.517u      0.333s      9.611w      2 calls
JK: (A|Q)^-1/2                      :      0.500u      0.000s      0.305w      2 calls
JK: (Q|mn)                          :      3.667u      0.333s      2.429w      2 calls
JK: D                               :      0.033u      0.000s      0.001w      2 calls
JK: USO2AO                          :      0.000u      0.000s      0.001w      2 calls
JK: JK                              :      4.867u      0.000s      2.953w      2 calls
| JK: J                             :      0.133u      0.000s      0.080w      2 calls
| | JK: J1                          :      0.067u      0.000s      0.037w      2 calls
| | JK: J2                          :      0.067u      0.000s      0.041w      2 calls
| JK: K                             :      4.733u      0.000s      2.869w      2 calls
| | JK: K1                          :      4.633u      0.000s      2.814w      4 calls
| | JK: K2                          :      0.100u      0.000s      0.055w      2 calls
JK: AO2USO                          :      0.000u      0.000s      0.000w      2 calls

**************************************************************************************

Host: ds12

Timers On : Mon Feb 17 12:59:14 2020
Timers Off: Mon Feb 17 12:59:39 2020

Wall Time:       25.26 seconds

                                                       Time (seconds)
Module                                       User      System        Wall        Calls
DFH: sparsity prep                  :      0.300u      0.033s      0.344w      2 calls
DFH: initialize()                   :      2.500u      0.117s      1.573w      2 calls
DFH: AO Construction                :      1.167u      0.033s      0.719w      2 calls
DFH: AO-Met. Contraction            :      0.500u      0.067s      0.348w      2 calls
HF: Form core H                     :      0.017u      0.000s      0.158w      2 calls
HF: Form S/X                        :      0.017u      0.000s      0.010w      2 calls
HF: Guess                           :      2.050u      0.000s      1.244w      2 calls
SAD Guess                           :      1.983u      0.000s      1.203w      2 calls
HF: Form G                          :      0.633u      0.000s      0.391w     22 calls
JK: D                               :      0.000u      0.000s      0.002w     24 calls
JK: USO2AO                          :      0.000u      0.000s      0.001w     24 calls
JK: JK                              :      4.967u      0.000s      3.006w     24 calls
DFH: compute_JK()                   :      0.633u      0.000s      0.385w     22 calls
DFH: Grabbing AOs                   :      0.000u      0.000s      0.000w     22 calls
DFH: compute_J                      :      0.167u      0.000s      0.121w     22 calls
DFH: compute_K                      :      0.450u      0.000s      0.263w     22 calls
JK: AO2USO                          :      0.000u      0.000s      0.000w     24 calls
HF: Form F                          :      0.000u      0.000s      0.002w     22 calls
HF: Form D                          :      0.017u      0.000s      0.001w     22 calls
HF: DIIS                            :      0.083u      0.017s      0.121w     20 calls
DIISManager::add_entry              :      0.000u      0.000s      0.069w     20 calls
DIISManager::extrapolate            :      0.033u      0.017s      0.014w     20 calls
bMatrix setup                       :      0.017u      0.017s      0.007w     20 calls
bMatrix pseudoinverse               :      0.000u      0.000s      0.002w     20 calls
New vector                          :      0.017u      0.000s      0.005w     20 calls
HF: Form C                          :      0.133u      0.000s      0.077w     20 calls
JK: (A|mn)                          :     14.867u      0.350s      9.199w      2 calls
JK: (A|Q)^-1/2                      :      0.517u      0.000s      0.303w      2 calls
JK: (Q|mn)                          :      3.567u      0.317s      2.348w      2 calls
JK: J                               :      0.133u      0.000s      0.076w      2 calls
JK: J1                              :      0.067u      0.000s      0.034w      2 calls
JK: J2                              :      0.067u      0.000s      0.040w      2 calls
JK: K                               :      4.200u      0.000s      2.541w      2 calls
JK: K1                              :      4.083u      0.000s      2.465w      4 calls
JK: K2                              :      0.117u      0.000s      0.075w      2 calls

--------------------------------------------------------------------------------------
DFH: sparsity prep                  :      0.300u      0.033s      0.344w      2 calls
DFH: initialize()                   :      2.500u      0.117s      1.573w      2 calls
| DFH: AO Construction              :      1.167u      0.033s      0.719w      2 calls
| DFH: AO-Met. Contraction          :      0.500u      0.067s      0.348w      2 calls
HF: Form core H                     :      0.017u      0.000s      0.158w      2 calls
HF: Form S/X                        :      0.017u      0.000s      0.010w      2 calls
HF: Guess                           :      2.050u      0.000s      1.244w      2 calls
| SAD Guess                         :      1.983u      0.000s      1.203w      2 calls
HF: Form G                          :      0.633u      0.000s      0.391w     22 calls
| JK: D                             :      0.000u      0.000s      0.001w     22 calls
| JK: USO2AO                        :      0.000u      0.000s      0.000w     22 calls
| JK: JK                            :      0.633u      0.000s      0.385w     22 calls
| | DFH: compute_JK()               :      0.633u      0.000s      0.385w     22 calls
| | | DFH: Grabbing AOs             :      0.000u      0.000s      0.000w     22 calls
| | | DFH: compute_J                :      0.167u      0.000s      0.121w     22 calls
| | | DFH: compute_K                :      0.450u      0.000s      0.263w     22 calls
| JK: AO2USO                        :      0.000u      0.000s      0.000w     22 calls
HF: Form F                          :      0.000u      0.000s      0.002w     22 calls
HF: Form D                          :      0.017u      0.000s      0.001w     22 calls
HF: DIIS                            :      0.083u      0.017s      0.121w     20 calls
| DIISManager::add_entry            :      0.000u      0.000s      0.069w     20 calls
| DIISManager::extrapolate          :      0.033u      0.017s      0.014w     20 calls
| | bMatrix setup                   :      0.017u      0.017s      0.007w     20 calls
| | bMatrix pseudoinverse           :      0.000u      0.000s      0.002w     20 calls
| | New vector                      :      0.017u      0.000s      0.005w     20 calls
HF: Form C                          :      0.133u      0.000s      0.077w     20 calls
JK: (A|mn)                          :     14.867u      0.350s      9.199w      2 calls
JK: (A|Q)^-1/2                      :      0.517u      0.000s      0.303w      2 calls
JK: (Q|mn)                          :      3.567u      0.317s      2.348w      2 calls
JK: D                               :      0.000u      0.000s      0.001w      2 calls
JK: USO2AO                          :      0.000u      0.000s      0.001w      2 calls
JK: JK                              :      4.333u      0.000s      2.621w      2 calls
| JK: J                             :      0.133u      0.000s      0.076w      2 calls
| | JK: J1                          :      0.067u      0.000s      0.034w      2 calls
| | JK: J2                          :      0.067u      0.000s      0.040w      2 calls
| JK: K                             :      4.200u      0.000s      2.541w      2 calls
| | JK: K1                          :      4.083u      0.000s      2.465w      4 calls
| | JK: K2                          :      0.117u      0.000s      0.075w      2 calls
JK: AO2USO                          :      0.000u      0.000s      0.000w      2 calls

**************************************************************************************

Host: hex15

Timers On : Tue Mar  3 16:16:44 2020
Timers Off: Tue Mar  3 16:16:58 2020

Wall Time:       13.39 seconds

                                                       Time (seconds)
Module                                       User      System        Wall        Calls
DFH: sparsity prep                  :      0.117u      0.017s      0.206w      2 calls
DFH: initialize()                   :      1.500u      0.050s      0.955w      2 calls
DFH: AO Construction                :      0.883u      0.000s      0.533w      2 calls
DFH: AO-Met. Contraction            :      0.267u      0.033s      0.173w      2 calls
HF: Form core H                     :      0.000u      0.000s      0.060w      2 calls
HF: Form S/X                        :      0.000u      0.000s      0.004w      2 calls
HF: Guess                           :      0.817u      0.000s      0.493w      2 calls
SAD Guess                           :      0.767u      0.000s      0.466w      2 calls
HF: Form G                          :      0.450u      0.000s      0.266w     22 calls
JK: D                               :      0.000u      0.000s      0.001w     24 calls
JK: USO2AO                          :      0.000u      0.000s      0.001w     24 calls
JK: JK                              :      2.250u      0.000s      1.344w     24 calls
DFH: compute_JK()                   :      0.450u      0.000s      0.262w     22 calls
DFH: Grabbing AOs                   :      0.000u      0.000s      0.000w     22 calls
DFH: compute_J                      :      0.183u      0.000s      0.097w     22 calls
DFH: compute_K                      :      0.267u      0.000s      0.165w     22 calls
JK: AO2USO                          :      0.000u      0.000s      0.000w     24 calls
HF: Form F                          :      0.000u      0.000s      0.001w     22 calls
HF: Form D                          :      0.000u      0.000s      0.001w     22 calls
HF: DIIS                            :      0.050u      0.017s      0.037w     20 calls
DIISManager::add_entry              :      0.000u      0.017s      0.007w     20 calls
DIISManager::extrapolate            :      0.000u      0.000s      0.008w     20 calls
bMatrix setup                       :      0.000u      0.000s      0.003w     20 calls
bMatrix pseudoinverse               :      0.000u      0.000s      0.001w     20 calls
New vector                          :      0.000u      0.000s      0.003w     20 calls
HF: Form C                          :      0.033u      0.000s      0.038w     20 calls
JK: (A|mn)                          :      6.383u      0.167s      3.934w      2 calls
JK: (A|Q)^-1/2                      :      0.150u      0.000s      0.091w      2 calls
JK: (Q|mn)                          :      0.750u      0.117s      0.521w      2 calls
JK: J                               :      0.067u      0.000s      0.037w      2 calls
JK: J1                              :      0.033u      0.000s      0.017w      2 calls
JK: J2                              :      0.033u      0.000s      0.019w      2 calls
JK: K                               :      1.733u      0.000s      1.043w      2 calls
JK: K1                              :      1.700u      0.000s      1.027w      4 calls
JK: K2                              :      0.033u      0.000s      0.016w      2 calls

--------------------------------------------------------------------------------------
DFH: sparsity prep                  :      0.117u      0.017s      0.206w      2 calls
DFH: initialize()                   :      1.500u      0.050s      0.955w      2 calls
| DFH: AO Construction              :      0.883u      0.000s      0.533w      2 calls
| DFH: AO-Met. Contraction          :      0.267u      0.033s      0.173w      2 calls
HF: Form core H                     :      0.000u      0.000s      0.060w      2 calls
HF: Form S/X                        :      0.000u      0.000s      0.004w      2 calls
HF: Guess                           :      0.817u      0.000s      0.493w      2 calls
| SAD Guess                         :      0.767u      0.000s      0.466w      2 calls
HF: Form G                          :      0.450u      0.000s      0.266w     22 calls
| JK: D                             :      0.000u      0.000s      0.001w     22 calls
| JK: USO2AO                        :      0.000u      0.000s      0.000w     22 calls
| JK: JK                            :      0.450u      0.000s      0.262w     22 calls
| | DFH: compute_JK()               :      0.450u      0.000s      0.262w     22 calls
| | | DFH: Grabbing AOs             :      0.000u      0.000s      0.000w     22 calls
| | | DFH: compute_J                :      0.183u      0.000s      0.097w     22 calls
| | | DFH: compute_K                :      0.267u      0.000s      0.165w     22 calls
| JK: AO2USO                        :      0.000u      0.000s      0.000w     22 calls
HF: Form F                          :      0.000u      0.000s      0.001w     22 calls
HF: Form D                          :      0.000u      0.000s      0.001w     22 calls
HF: DIIS                            :      0.050u      0.017s      0.037w     20 calls
| DIISManager::add_entry            :      0.000u      0.017s      0.007w     20 calls
| DIISManager::extrapolate          :      0.000u      0.000s      0.008w     20 calls
| | bMatrix setup                   :      0.000u      0.000s      0.003w     20 calls
| | bMatrix pseudoinverse           :      0.000u      0.000s      0.001w     20 calls
| | New vector                      :      0.000u      0.000s      0.003w     20 calls
HF: Form C                          :      0.033u      0.000s      0.038w     20 calls
JK: (A|mn)                          :      6.383u      0.167s      3.934w      2 calls
JK: (A|Q)^-1/2                      :      0.150u      0.000s      0.091w      2 calls
JK: (Q|mn)                          :      0.750u      0.117s      0.521w      2 calls
JK: D                               :      0.000u      0.000s      0.000w      2 calls
JK: USO2AO                          :      0.000u      0.000s      0.001w      2 calls
JK: JK                              :      1.800u      0.000s      1.082w      2 calls
| JK: J                             :      0.067u      0.000s      0.037w      2 calls
| | JK: J1                          :      0.033u      0.000s      0.017w      2 calls
| | JK: J2                          :      0.033u      0.000s      0.019w      2 calls
| JK: K                             :      1.733u      0.000s      1.043w      2 calls
| | JK: K1                          :      1.700u      0.000s      1.027w      4 calls
| | JK: K2                          :      0.033u      0.000s      0.016w      2 calls
JK: AO2USO                          :      0.000u      0.000s      0.000w      2 calls

**************************************************************************************

Host: ds12

Timers On : Mon Mar  9 15:16:25 2020
Timers Off: Mon Mar  9 15:16:37 2020

Wall Time:       12.35 seconds

                                                       Time (seconds)
Module                                       User      System        Wall        Calls
DFH: sparsity prep                  :      0.300u      0.050s      0.391w      2 calls
DFH: initialize()                   :      3.000u      0.100s      1.884w      2 calls
DFH: AO Construction                :      1.417u      0.050s      0.887w      2 calls
DFH: AO-Met. Contraction            :      0.517u      0.033s      0.346w      2 calls
HF: Form core H                     :      0.000u      0.033s      0.138w      2 calls
HF: Form S/X                        :      0.033u      0.000s      0.016w      2 calls
HF: Guess                           :      2.350u      0.000s      1.420w      2 calls
SAD Guess                           :      2.250u      0.000s      1.354w      2 calls
HF: Form G                          :      0.767u      0.000s      0.464w     22 calls
JK: D                               :      0.000u      0.000s      0.001w     22 calls
JK: USO2AO                          :      0.000u      0.000s      0.001w     22 calls
JK: JK                              :      0.750u      0.000s      0.457w     22 calls
DFH: compute_JK()                   :      0.750u      0.000s      0.457w     22 calls
DFH: Grabbing AOs                   :      0.000u      0.000s      0.000w     22 calls
DFH: compute_J                      :      0.283u      0.000s      0.152w     22 calls
DFH: compute_K                      :      0.467u      0.000s      0.304w     22 calls
JK: AO2USO                          :      0.000u      0.000s      0.000w     22 calls
HF: Form F                          :      0.000u      0.000s      0.002w     22 calls
HF: Form D                          :      0.017u      0.000s      0.001w     22 calls
HF: DIIS                            :      0.083u      0.017s      0.071w     20 calls
DIISManager::add_entry              :      0.017u      0.000s      0.013w     20 calls
DIISManager::extrapolate            :      0.017u      0.017s      0.015w     20 calls
bMatrix setup                       :      0.017u      0.017s      0.007w     20 calls
bMatrix pseudoinverse               :      0.000u      0.000s      0.003w     20 calls
New vector                          :      0.000u      0.000s      0.005w     20 calls
HF: Form C                          :      0.167u      0.000s      0.090w     20 calls

--------------------------------------------------------------------------------------
DFH: sparsity prep                  :      0.300u      0.050s      0.391w      2 calls
DFH: initialize()                   :      3.000u      0.100s      1.884w      2 calls
| DFH: AO Construction              :      1.417u      0.050s      0.887w      2 calls
| DFH: AO-Met. Contraction          :      0.517u      0.033s      0.346w      2 calls
HF: Form core H                     :      0.000u      0.033s      0.138w      2 calls
HF: Form S/X                        :      0.033u      0.000s      0.016w      2 calls
HF: Guess                           :      2.350u      0.000s      1.420w      2 calls
| SAD Guess                         :      2.250u      0.000s      1.354w      2 calls
HF: Form G                          :      0.767u      0.000s      0.464w     22 calls
| JK: D                             :      0.000u      0.000s      0.001w     22 calls
| JK: USO2AO                        :      0.000u      0.000s      0.001w     22 calls
| JK: JK                            :      0.750u      0.000s      0.457w     22 calls
| | DFH: compute_JK()               :      0.750u      0.000s      0.457w     22 calls
| | | DFH: Grabbing AOs             :      0.000u      0.000s      0.000w     22 calls
| | | DFH: compute_J                :      0.283u      0.000s      0.152w     22 calls
| | | DFH: compute_K                :      0.467u      0.000s      0.304w     22 calls
| JK: AO2USO                        :      0.000u      0.000s      0.000w     22 calls
HF: Form F                          :      0.000u      0.000s      0.002w     22 calls
HF: Form D                          :      0.017u      0.000s      0.001w     22 calls
HF: DIIS                            :      0.083u      0.017s      0.071w     20 calls
| DIISManager::add_entry            :      0.017u      0.000s      0.013w     20 calls
| DIISManager::extrapolate          :      0.017u      0.017s      0.015w     20 calls
| | bMatrix setup                   :      0.017u      0.017s      0.007w     20 calls
| | bMatrix pseudoinverse           :      0.000u      0.000s      0.003w     20 calls
| | New vector                      :      0.000u      0.000s      0.005w     20 calls
HF: Form C                          :      0.167u      0.000s      0.090w     20 calls

**************************************************************************************

Host: hex11

Timers On : Mon Mar  9 15:14:36 2020
Timers Off: Mon Mar  9 15:14:44 2020

Wall Time:        8.15 seconds

                                                       Time (seconds)
Module                                       User      System        Wall        Calls
DFH: sparsity prep                  :      0.100u      0.000s      0.057w      2 calls
DFH: initialize()                   :      1.033u      0.017s      0.647w      2 calls
DFH: AO Construction                :      0.467u      0.000s      0.293w      2 calls
DFH: AO-Met. Contraction            :      0.133u      0.017s      0.082w      2 calls
HF: Form core H                     :      0.017u      0.000s      0.076w      2 calls
HF: Form S/X                        :      0.000u      0.000s      0.003w      2 calls
HF: Guess                           :      0.717u      0.000s      0.431w      2 calls
SAD Guess                           :      0.667u      0.000s      0.402w      2 calls
HF: Form G                          :      0.283u      0.000s      0.140w     22 calls
JK: D                               :      0.000u      0.000s      0.001w     24 calls
JK: USO2AO                          :      0.000u      0.000s      0.001w     24 calls
JK: JK                              :      1.217u      0.000s      0.695w     24 calls
DFH: compute_JK()                   :      0.283u      0.000s      0.138w     22 calls
DFH: Grabbing AOs                   :      0.000u      0.000s      0.000w     22 calls
DFH: compute_J                      :      0.117u      0.000s      0.053w     22 calls
DFH: compute_K                      :      0.150u      0.000s      0.085w     22 calls
JK: AO2USO                          :      0.000u      0.000s      0.000w     24 calls
HF: Form F                          :      0.000u      0.000s      0.001w     22 calls
HF: Form D                          :      0.000u      0.000s      0.000w     22 calls
HF: DIIS                            :      0.033u      0.000s      0.023w     20 calls
DIISManager::add_entry              :      0.000u      0.000s      0.005w     20 calls
DIISManager::extrapolate            :      0.017u      0.000s      0.005w     20 calls
bMatrix setup                       :      0.000u      0.000s      0.002w     20 calls
bMatrix pseudoinverse               :      0.000u      0.000s      0.001w     20 calls
New vector                          :      0.017u      0.000s      0.002w     20 calls
HF: Form C                          :      0.000u      0.017s      0.021w     20 calls
JK: (A|mn)                          :      4.850u      0.050s      2.941w      2 calls
JK: (A|Q)^-1/2                      :      0.133u      0.000s      0.080w      2 calls
JK: (Q|mn)                          :      0.633u      0.033s      0.403w      2 calls
JK: J                               :      0.067u      0.000s      0.032w      2 calls
JK: J1                              :      0.033u      0.000s      0.015w      2 calls
JK: J2                              :      0.033u      0.000s      0.016w      2 calls
JK: K                               :      0.867u      0.000s      0.524w      2 calls
JK: K1                              :      0.867u      0.000s      0.510w      4 calls
JK: K2                              :      0.000u      0.000s      0.013w      2 calls

--------------------------------------------------------------------------------------
DFH: sparsity prep                  :      0.100u      0.000s      0.057w      2 calls
DFH: initialize()                   :      1.033u      0.017s      0.647w      2 calls
| DFH: AO Construction              :      0.467u      0.000s      0.293w      2 calls
| DFH: AO-Met. Contraction          :      0.133u      0.017s      0.082w      2 calls
HF: Form core H                     :      0.017u      0.000s      0.076w      2 calls
HF: Form S/X                        :      0.000u      0.000s      0.003w      2 calls
HF: Guess                           :      0.717u      0.000s      0.431w      2 calls
| SAD Guess                         :      0.667u      0.000s      0.402w      2 calls
HF: Form G                          :      0.283u      0.000s      0.140w     22 calls
| JK: D                             :      0.000u      0.000s      0.000w     22 calls
| JK: USO2AO                        :      0.000u      0.000s      0.000w     22 calls
| JK: JK                            :      0.283u      0.000s      0.138w     22 calls
| | DFH: compute_JK()               :      0.283u      0.000s      0.138w     22 calls
| | | DFH: Grabbing AOs             :      0.000u      0.000s      0.000w     22 calls
| | | DFH: compute_J                :      0.117u      0.000s      0.053w     22 calls
| | | DFH: compute_K                :      0.150u      0.000s      0.085w     22 calls
| JK: AO2USO                        :      0.000u      0.000s      0.000w     22 calls
HF: Form F                          :      0.000u      0.000s      0.001w     22 calls
HF: Form D                          :      0.000u      0.000s      0.000w     22 calls
HF: DIIS                            :      0.033u      0.000s      0.023w     20 calls
| DIISManager::add_entry            :      0.000u      0.000s      0.005w     20 calls
| DIISManager::extrapolate          :      0.017u      0.000s      0.005w     20 calls
| | bMatrix setup                   :      0.000u      0.000s      0.002w     20 calls
| | bMatrix pseudoinverse           :      0.000u      0.000s      0.001w     20 calls
| | New vector                      :      0.017u      0.000s      0.002w     20 calls
HF: Form C                          :      0.000u      0.017s      0.021w     20 calls
JK: (A|mn)                          :      4.850u      0.050s      2.941w      2 calls
JK: (A|Q)^-1/2                      :      0.133u      0.000s      0.080w      2 calls
JK: (Q|mn)                          :      0.633u      0.033s      0.403w      2 calls
JK: D                               :      0.000u      0.000s      0.000w      2 calls
JK: USO2AO                          :      0.000u      0.000s      0.000w      2 calls
JK: JK                              :      0.933u      0.000s      0.557w      2 calls
| JK: J                             :      0.067u      0.000s      0.032w      2 calls
| | JK: J1                          :      0.033u      0.000s      0.015w      2 calls
| | JK: J2                          :      0.033u      0.000s      0.016w      2 calls
| JK: K                             :      0.867u      0.000s      0.524w      2 calls
| | JK: K1                          :      0.867u      0.000s      0.510w      4 calls
| | JK: K2                          :      0.000u      0.000s      0.013w      2 calls
JK: AO2USO                          :      0.000u      0.000s      0.000w      2 calls

**************************************************************************************

Host: ds6

Timers On : Mon Apr 27 14:00:20 2020
Timers Off: Mon Apr 27 14:00:26 2020

Wall Time:        5.80 seconds

                                                       Time (seconds)
Module                                       User      System        Wall        Calls
DFH: sparsity prep                  :      0.067u      0.000s      0.048w      2 calls
DFH: initialize()                   :      0.417u      0.033s      0.265w      2 calls
DFH: AO Construction                :      0.183u      0.017s      0.126w      2 calls
DFH: AO-Met. Contraction            :      0.067u      0.017s      0.049w      2 calls
HF: Form core H                     :      0.017u      0.000s      0.015w      2 calls
HF: Form S/X                        :      0.000u      0.000s      0.003w      2 calls
HF: Guess                           :      0.450u      0.000s      0.263w      2 calls
SAD Guess                           :      0.400u      0.000s      0.237w      2 calls
HF: Form G                          :      0.117u      0.000s      0.088w     22 calls
JK: D                               :      0.000u      0.000s      0.001w     24 calls
JK: USO2AO                          :      0.000u      0.000s      0.000w     24 calls
JK: JK                              :      1.200u      0.000s      0.738w     24 calls
DFH: compute_JK()                   :      0.117u      0.000s      0.086w     22 calls
DFH: Grabbing AOs                   :      0.000u      0.000s      0.000w     22 calls
DFH: compute_J                      :      0.033u      0.000s      0.036w     22 calls
DFH: compute_K                      :      0.083u      0.000s      0.050w     22 calls
JK: AO2USO                          :      0.000u      0.000s      0.000w     24 calls
HF: Form F                          :      0.000u      0.000s      0.001w     22 calls
HF: Form D                          :      0.000u      0.000s      0.000w     22 calls
HF: DIIS                            :      0.050u      0.000s      0.020w     20 calls
DIISManager::add_entry              :      0.000u      0.000s      0.006w     20 calls
DIISManager::extrapolate            :      0.000u      0.000s      0.005w     20 calls
bMatrix setup                       :      0.000u      0.000s      0.002w     20 calls
bMatrix pseudoinverse               :      0.000u      0.000s      0.001w     20 calls
New vector                          :      0.000u      0.000s      0.002w     20 calls
HF: Form C                          :      0.000u      0.000s      0.015w     20 calls
JK: (A|mn)                          :      3.083u      0.000s      1.849w      2 calls
JK: (A|Q)^-1/2                      :      0.100u      0.000s      0.053w      2 calls
JK: (Q|mn)                          :      0.350u      0.000s      0.209w      2 calls
JK: J                               :      0.050u      0.000s      0.034w      2 calls
JK: J1                              :      0.033u      0.000s      0.016w      2 calls
JK: J2                              :      0.017u      0.000s      0.017w      2 calls
JK: K                               :      1.033u      0.000s      0.618w      2 calls
JK: K1                              :      1.017u      0.000s      0.610w      4 calls
JK: K2                              :      0.017u      0.000s      0.008w      2 calls

--------------------------------------------------------------------------------------
DFH: sparsity prep                  :      0.067u      0.000s      0.048w      2 calls
DFH: initialize()                   :      0.417u      0.033s      0.265w      2 calls
| DFH: AO Construction              :      0.183u      0.017s      0.126w      2 calls
| DFH: AO-Met. Contraction          :      0.067u      0.017s      0.049w      2 calls
HF: Form core H                     :      0.017u      0.000s      0.015w      2 calls
HF: Form S/X                        :      0.000u      0.000s      0.003w      2 calls
HF: Guess                           :      0.450u      0.000s      0.263w      2 calls
| SAD Guess                         :      0.400u      0.000s      0.237w      2 calls
HF: Form G                          :      0.117u      0.000s      0.088w     22 calls
| JK: D                             :      0.000u      0.000s      0.000w     22 calls
| JK: USO2AO                        :      0.000u      0.000s      0.000w     22 calls
| JK: JK                            :      0.117u      0.000s      0.086w     22 calls
| | DFH: compute_JK()               :      0.117u      0.000s      0.086w     22 calls
| | | DFH: Grabbing AOs             :      0.000u      0.000s      0.000w     22 calls
| | | DFH: compute_J                :      0.033u      0.000s      0.036w     22 calls
| | | DFH: compute_K                :      0.083u      0.000s      0.050w     22 calls
| JK: AO2USO                        :      0.000u      0.000s      0.000w     22 calls
HF: Form F                          :      0.000u      0.000s      0.001w     22 calls
HF: Form D                          :      0.000u      0.000s      0.000w     22 calls
HF: DIIS                            :      0.050u      0.000s      0.020w     20 calls
| DIISManager::add_entry            :      0.000u      0.000s      0.006w     20 calls
| DIISManager::extrapolate          :      0.000u      0.000s      0.005w     20 calls
| | bMatrix setup                   :      0.000u      0.000s      0.002w     20 calls
| | bMatrix pseudoinverse           :      0.000u      0.000s      0.001w     20 calls
| | New vector                      :      0.000u      0.000s      0.002w     20 calls
HF: Form C                          :      0.000u      0.000s      0.015w     20 calls
JK: (A|mn)                          :      3.083u      0.000s      1.849w      2 calls
JK: (A|Q)^-1/2                      :      0.100u      0.000s      0.053w      2 calls
JK: (Q|mn)                          :      0.350u      0.000s      0.209w      2 calls
JK: D                               :      0.000u      0.000s      0.000w      2 calls
JK: USO2AO                          :      0.000u      0.000s      0.000w      2 calls
JK: JK                              :      1.083u      0.000s      0.653w      2 calls
| JK: J                             :      0.050u      0.000s      0.034w      2 calls
[...]
HF: Form D                          :      0.000u      0.000s      0.000w     22 calls
HF: DIIS                            :      0.100u      0.000s      0.130w     20 calls
| DIISManager::add_entry            :      0.033u      0.000s      0.071w     20 calls
| DIISManager::extrapolate          :      0.017u      0.000s      0.018w     20 calls
| | bMatrix setup                   :      0.017u      0.000s      0.003w     20 calls
| | bMatrix pseudoinverse           :      0.000u      0.000s      0.001w     20 calls
| | New vector                      :      0.000u      0.000s      0.013w     20 calls
HF: Form C                          :      0.083u      0.000s      0.019w     20 calls
JK: D                               :      0.000u      0.000s      0.000w      1 calls
JK: USO2AO                          :      0.000u      0.000s      0.000w      1 calls
JK: JK                              :      0.150u      0.000s      0.093w      1 calls
| DFH: compute_JK()                 :      0.150u      0.000s      0.093w      1 calls
| | DFH: Grabbing AOs               :      0.000u      0.000s      0.000w      1 calls
| | DFH: compute_J                  :      0.050u      0.000s      0.035w      1 calls
| | DFH: compute_K                  :      0.100u      0.000s      0.058w      1 calls
JK: AO2USO                          :      0.000u      0.000s      0.000w      1 calls
DFH_2B: sparsity prep               :      0.517u      0.000s      0.309w      1 calls
DFH: metric construction            :      0.067u      0.000s      0.043w      1 calls

**************************************************************************************

Host: ds6

Timers On : Tue Jul 28 14:33:56 2020
Timers Off: Tue Jul 28 14:34:09 2020

Wall Time:       13.33 seconds

                                                       Time (seconds)
Module                                       User      System        Wall        Calls
DFH: sparsity prep                  :      0.350u      0.000s      0.213w      3 calls
DFH: initialize()                   :      6.217u      0.150s      3.825w      3 calls
DFH: AO Construction                :      4.450u      0.033s      2.691w      3 calls
DFH: AO-Met. Contraction            :      1.117u      0.100s      0.731w      3 calls
HF: Form core H                     :      0.033u      0.000s      0.030w      2 calls
HF: Form S/X                        :      0.000u      0.000s      0.004w      2 calls
HF: Guess                           :      0.833u      0.000s      0.494w      2 calls
SAD Guess                           :      0.783u      0.000s      0.470w      2 calls
HF: Form G                          :      0.200u      0.000s      0.104w     22 calls
JK: D                               :      0.000u      0.000s      0.001w     23 calls
JK: USO2AO                          :      0.000u      0.000s      0.001w     23 calls
JK: JK                              :      0.367u      0.000s      0.197w     23 calls
DFH: compute_JK()                   :      0.367u      0.000s      0.196w     23 calls
DFH: Grabbing AOs                   :      0.000u      0.000s      0.000w     23 calls
DFH: compute_J                      :      0.150u      0.000s      0.078w     23 calls
DFH: compute_K                      :      0.217u      0.000s      0.117w     23 calls
JK: AO2USO                          :      0.000u      0.000s      0.000w     23 calls
HF: Form F                          :      0.000u      0.000s      0.001w     22 calls
HF: Form D                          :      0.000u      0.000s      0.000w     22 calls
HF: DIIS                            :      0.100u      0.017s      0.067w     20 calls
DIISManager::add_entry              :      0.017u      0.000s      0.010w     20 calls
DIISManager::extrapolate            :      0.033u      0.017s      0.017w     20 calls
bMatrix setup                       :      0.000u      0.000s      0.003w     20 calls
bMatrix pseudoinverse               :      0.017u      0.000s      0.001w     20 calls
New vector                          :      0.017u      0.017s      0.013w     20 calls
HF: Form C                          :      0.017u      0.000s      0.018w     20 calls
DFH_2B: sparsity prep               :      0.517u      0.000s      0.309w      1 calls
DFH: metric construction            :      0.083u      0.000s      0.043w      1 calls

--------------------------------------------------------------------------------------
DFH: sparsity prep                  :      0.150u      0.000s      0.085w      2 calls
DFH: initialize()                   :      6.217u      0.150s      3.825w      3 calls
| DFH: AO Construction              :      4.450u      0.033s      2.691w      3 calls
| DFH: AO-Met. Contraction          :      1.117u      0.100s      0.731w      3 calls
| DFH: sparsity prep                :      0.200u      0.000s      0.128w      1 calls
HF: Form core H                     :      0.033u      0.000s      0.030w      2 calls
HF: Form S/X                        :      0.000u      0.000s      0.004w      2 calls
HF: Guess                           :      0.833u      0.000s      0.494w      2 calls
| SAD Guess                         :      0.783u      0.000s      0.470w      2 calls
HF: Form G                          :      0.200u      0.000s      0.104w     22 calls
| JK: D                             :      0.000u      0.000s      0.000w     22 calls
| JK: USO2AO                        :      0.000u      0.000s      0.000w     22 calls
| JK: JK                            :      0.200u      0.000s      0.100w     22 calls
| | DFH: compute_JK()               :      0.200u      0.000s      0.100w     22 calls
| | | DFH: Grabbing AOs             :      0.000u      0.000s      0.000w     22 calls
| | | DFH: compute_J                :      0.083u      0.000s      0.042w     22 calls
| | | DFH: compute_K                :      0.117u      0.000s      0.057w     22 calls
| JK: AO2USO                        :      0.000u      0.000s      0.000w     22 calls
HF: Form F                          :      0.000u      0.000s      0.001w     22 calls
HF: Form D                          :      0.000u      0.000s      0.000w     22 calls
HF: DIIS                            :      0.100u      0.017s      0.067w     20 calls
| DIISManager::add_entry            :      0.017u      0.000s      0.010w     20 calls
| DIISManager::extrapolate          :      0.033u      0.017s      0.017w     20 calls
| | bMatrix setup                   :      0.000u      0.000s      0.003w     20 calls
| | bMatrix pseudoinverse           :      0.017u      0.000s      0.001w     20 calls
| | New vector                      :      0.017u      0.017s      0.013w     20 calls
HF: Form C                          :      0.017u      0.000s      0.018w     20 calls
JK: D                               :      0.000u      0.000s      0.000w      1 calls
JK: USO2AO                          :      0.000u      0.000s      0.000w      1 calls
JK: JK                              :      0.167u      0.000s      0.096w      1 calls
| DFH: compute_JK()                 :      0.167u      0.000s      0.096w      1 calls
| | DFH: Grabbing AOs               :      0.000u      0.000s      0.000w      1 calls
| | DFH: compute_J                  :      0.067u      0.000s      0.035w      1 calls
| | DFH: compute_K                  :      0.100u      0.000s      0.061w      1 calls
JK: AO2USO                          :      0.000u      0.000s      0.000w      1 calls
DFH_2B: sparsity prep               :      0.517u      0.000s      0.309w      1 calls
DFH: metric construction            :      0.083u      0.000s      0.043w      1 calls

**************************************************************************************

Host: ds6

Timers On : Tue Jul 28 14:45:24 2020
Timers Off: Tue Jul 28 14:45:38 2020

Wall Time:       13.28 seconds

                                                       Time (seconds)
Module                                       User      System        Wall        Calls
DFH: sparsity prep                  :      0.350u      0.000s      0.214w      3 calls
DFH: initialize()                   :      6.217u      0.167s      3.851w      3 calls
DFH: AO Construction                :      4.467u      0.033s      2.707w      3 calls
DFH: AO-Met. Contraction            :      1.133u      0.133s      0.741w      3 calls
HF: Form core H                     :      0.050u      0.000s      0.029w      2 calls
HF: Form S/X                        :      0.000u      0.000s      0.004w      2 calls
HF: Guess                           :      0.817u      0.000s      0.494w      2 calls
SAD Guess                           :      0.767u      0.000s      0.469w      2 calls
HF: Form G                          :      0.200u      0.000s      0.102w     22 calls
JK: D                               :      0.000u      0.000s      0.001w     23 calls
JK: USO2AO                          :      0.000u      0.000s      0.001w     23 calls
JK: JK                              :      0.333u      0.000s      0.192w     23 calls
DFH: compute_JK()                   :      0.333u      0.000s      0.192w     23 calls
DFH: Grabbing AOs                   :      0.000u      0.000s      0.000w     23 calls
DFH: compute_J                      :      0.133u      0.000s      0.077w     23 calls
DFH: compute_K                      :      0.200u      0.000s      0.114w     23 calls
JK: AO2USO                          :      0.000u      0.000s      0.000w     23 calls
HF: Form F                          :      0.000u      0.000s      0.001w     22 calls
HF: Form D                          :      0.000u      0.000s      0.000w     22 calls
HF: DIIS                            :      0.117u      0.000s      0.068w     20 calls
DIISManager::add_entry              :      0.017u      0.000s      0.010w     20 calls
DIISManager::extrapolate            :      0.033u      0.000s      0.018w     20 calls
bMatrix setup                       :      0.000u      0.000s      0.003w     20 calls
bMatrix pseudoinverse               :      0.000u      0.000s      0.001w     20 calls
New vector                          :      0.033u      0.000s      0.013w     20 calls
HF: Form C                          :      0.033u      0.000s      0.018w     20 calls
DFH_2B: sparsity prep               :      0.517u      0.000s      0.310w      1 calls
DFH: metric construction            :      0.067u      0.000s      0.043w      1 calls

--------------------------------------------------------------------------------------
DFH: sparsity prep                  :      0.133u      0.000s      0.086w      2 calls
DFH: initialize()                   :      6.217u      0.167s      3.851w      3 calls
| DFH: AO Construction              :      4.467u      0.033s      2.707w      3 calls
| DFH: AO-Met. Contraction          :      1.133u      0.133s      0.741w      3 calls
| DFH: sparsity prep                :      0.217u      0.000s      0.129w      1 calls
HF: Form core H                     :      0.050u      0.000s      0.029w      2 calls
HF: Form S/X                        :      0.000u      0.000s      0.004w      2 calls
HF: Guess                           :      0.817u      0.000s      0.494w      2 calls
| SAD Guess                         :      0.767u      0.000s      0.469w      2 calls
HF: Form G                          :      0.200u      0.000s      0.102w     22 calls
| JK: D                             :      0.000u      0.000s      0.000w     22 calls
| JK: USO2AO                        :      0.000u      0.000s      0.000w     22 calls
| JK: JK                            :      0.183u      0.000s      0.098w     22 calls
| | DFH: compute_JK()               :      0.183u      0.000s      0.098w     22 calls
| | | DFH: Grabbing AOs             :      0.000u      0.000s      0.000w     22 calls
| | | DFH: compute_J                :      0.083u      0.000s      0.042w     22 calls
| | | DFH: compute_K                :      0.100u      0.000s      0.055w     22 calls
| JK: AO2USO                        :      0.000u      0.000s      0.000w     22 calls
HF: Form F                          :      0.000u      0.000s      0.001w     22 calls
HF: Form D                          :      0.000u      0.000s      0.000w     22 calls
HF: DIIS                            :      0.117u      0.000s      0.068w     20 calls
| DIISManager::add_entry            :      0.017u      0.000s      0.010w     20 calls
| DIISManager::extrapolate          :      0.033u      0.000s      0.018w     20 calls
| | bMatrix setup                   :      0.000u      0.000s      0.003w     20 calls
| | bMatrix pseudoinverse           :      0.000u      0.000s      0.001w     20 calls
| | New vector                      :      0.033u      0.000s      0.013w     20 calls
HF: Form C                          :      0.033u      0.000s      0.018w     20 calls
JK: D                               :      0.000u      0.000s      0.000w      1 calls
JK: USO2AO                          :      0.000u      0.000s      0.000w      1 calls
JK: JK                              :      0.150u      0.000s      0.094w      1 calls
| DFH: compute_JK()                 :      0.150u      0.000s      0.094w      1 calls
| | DFH: Grabbing AOs               :      0.000u      0.000s      0.000w      1 calls
| | DFH: compute_J                  :      0.050u      0.000s      0.035w      1 calls
| | DFH: compute_K                  :      0.100u      0.000s      0.058w      1 calls
JK: AO2USO                          :      0.000u      0.000s      0.000w      1 calls
DFH_2B: sparsity prep               :      0.517u      0.000s      0.310w      1 calls
DFH: metric construction            :      0.067u      0.000s      0.043w      1 calls

**************************************************************************************

Host: ds6

Timers On : Tue Jul 28 14:54:35 2020
Timers Off: Tue Jul 28 14:54:49 2020

Wall Time:       13.33 seconds

                                                       Time (seconds)
Module                                       User      System        Wall        Calls
DFH: sparsity prep                  :      0.333u      0.017s      0.214w      3 calls
DFH: initialize()                   :      6.250u      0.183s      3.850w      3 calls
DFH: AO Construction                :      4.483u      0.050s      2.724w      3 calls
DFH: AO-Met. Contraction            :      1.100u      0.117s      0.723w      3 calls
HF: Form core H                     :      0.033u      0.000s      0.030w      2 calls
HF: Form S/X                        :      0.017u      0.000s      0.011w      2 calls
HF: Guess                           :      0.867u      0.000s      0.518w      2 calls
SAD Guess                           :      0.783u      0.000s      0.471w      2 calls
HF: Form G                          :      0.167u      0.000s      0.101w     22 calls
JK: D                               :      0.000u      0.000s      0.001w     23 calls
JK: USO2AO                          :      0.000u      0.000s      0.001w     23 calls
JK: JK                              :      0.317u      0.000s      0.188w     23 calls
DFH: compute_JK()                   :      0.317u      0.000s      0.188w     23 calls
DFH: Grabbing AOs                   :      0.000u      0.000s      0.000w     23 calls
DFH: compute_J                      :      0.167u      0.000s      0.076w     23 calls
DFH: compute_K                      :      0.150u      0.000s      0.111w     23 calls
JK: AO2USO                          :      0.000u      0.000s      0.000w     23 calls
HF: Form F                          :      0.000u      0.000s      0.001w     22 calls
HF: Form D                          :      0.000u      0.000s      0.000w     22 calls
HF: DIIS                            :      0.100u      0.017s      0.067w     20 calls
DIISManager::add_entry              :      0.017u      0.000s      0.010w     20 calls
DIISManager::extrapolate            :      0.017u      0.017s      0.018w     20 calls
bMatrix setup                       :      0.000u      0.017s      0.003w     20 calls
bMatrix pseudoinverse               :      0.000u      0.000s      0.001w     20 calls
New vector                          :      0.017u      0.000s      0.013w     20 calls
HF: Form C                          :      0.050u      0.000s      0.018w     20 calls
DFH_2B: sparsity prep               :      0.517u      0.000s      0.310w      1 calls
DFH: metric construction            :      0.067u      0.000s      0.043w      1 calls

--------------------------------------------------------------------------------------
DFH: sparsity prep                  :      0.133u      0.017s      0.085w      2 calls
DFH: initialize()                   :      6.250u      0.183s      3.850w      3 calls
| DFH: AO Construction              :      4.483u      0.050s      2.724w      3 calls
| DFH: AO-Met. Contraction          :      1.100u      0.117s      0.723w      3 calls
| DFH: sparsity prep                :      0.200u      0.000s      0.129w      1 calls
HF: Form core H                     :      0.033u      0.000s      0.030w      2 calls
HF: Form S/X                        :      0.017u      0.000s      0.011w      2 calls
HF: Guess                           :      0.867u      0.000s      0.518w      2 calls
| SAD Guess                         :      0.783u      0.000s      0.471w      2 calls
HF: Form G                          :      0.167u      0.000s      0.101w     22 calls
| JK: D                             :      0.000u      0.000s      0.000w     22 calls
| JK: USO2AO                        :      0.000u      0.000s      0.000w     22 calls
| JK: JK                            :      0.167u      0.000s      0.098w     22 calls
| | DFH: compute_JK()               :      0.167u      0.000s      0.097w     22 calls
| | | DFH: Grabbing AOs             :      0.000u      0.000s      0.000w     22 calls
| | | DFH: compute_J                :      0.100u      0.000s      0.042w     22 calls
| | | DFH: compute_K                :      0.067u      0.000s      0.055w     22 calls
| JK: AO2USO                        :      0.000u      0.000s      0.000w     22 calls
HF: Form F                          :      0.000u      0.000s      0.001w     22 calls
HF: Form D                          :      0.000u      0.000s      0.000w     22 calls
HF: DIIS                            :      0.100u      0.017s      0.067w     20 calls
| DIISManager::add_entry            :      0.017u      0.000s      0.010w     20 calls
| DIISManager::extrapolate          :      0.017u      0.017s      0.018w     20 calls
| | bMatrix setup                   :      0.000u      0.017s      0.003w     20 calls
| | bMatrix pseudoinverse           :      0.000u      0.000s      0.001w     20 calls
| | New vector                      :      0.017u      0.000s      0.013w     20 calls
HF: Form C                          :      0.050u      0.000s      0.018w     20 calls
JK: D                               :      0.000u      0.000s      0.000w      1 calls
JK: USO2AO                          :      0.000u      0.000s      0.000w      1 calls
JK: JK                              :      0.150u      0.000s      0.091w      1 calls
| DFH: compute_JK()                 :      0.150u      0.000s      0.091w      1 calls
| | DFH: Grabbing AOs               :      0.000u      0.000s      0.000w      1 calls
| | DFH: compute_J                  :      0.067u      0.000s      0.034w      1 calls
| | DFH: compute_K                  :      0.083u      0.000s      0.056w      1 calls
JK: AO2USO                          :      0.000u      0.000s      0.000w      1 calls
DFH_2B: sparsity prep               :      0.517u      0.000s      0.310w      1 calls
DFH: metric construction            :      0.067u      0.000s      0.043w      1 calls

**************************************************************************************
